     283
 i =       62, time =       31.000, E =     -1638.0380939849
  O         5.4499195937        3.9795426254        2.3183493803
  H        10.3998400964        5.3012866047        6.4186128056
  H         5.5582418901        4.8913779521        1.9964581618
  O         6.9000599583        8.2330452536        6.8812127155
  H         6.0325363728        8.3516992100        7.2917265720
  H         7.1913864656        9.1192418055        6.6473981773
  O        11.4616032741       10.9818512492        4.3649934588
  H        11.4668808710        9.9917910201        4.4590432035
  H        11.2656064214       11.4450148041        5.2247045784
  O         5.1463326248       14.0815467977        6.4709439075
  H         5.8074470151       14.8234289925        6.2882939578
  H         5.2918407745       13.4113126022        5.7889288310
  O         4.5332107799       14.2752878544       10.7595737732
  H         3.6240222469       14.6773592786       10.7120480474
  H         4.3777409246       13.6137703675       11.4613319693
  O        10.1208445977        5.9757030806        7.0895419026
  H         6.3630086407        5.6529774836        5.7204409491
  H        10.9224221557        6.1400206917        7.6388515649
  O        11.0262489323        9.7009001026        1.3513748812
  H        10.4883783028        9.3070569071        0.5946704571
  H        10.6405875265        9.3193671065        2.1450395600
  O        -0.4581755463        9.5077111982        0.6745959891
  H         0.0135730510        9.1824068708        1.5004472556
  H        -1.4621714514        9.6402973333        0.9821484505
  O         2.5435373465       12.2005256156        9.7054005917
  H         2.3952847295       12.8265458539       10.4287830990
  H         1.6741443376       11.8455782025        9.3550561269
  O        12.9741901975        2.7060742831        4.9564445631
  H        13.4353515428        3.3821283178        4.4490102967
  H        13.6517996392        2.2724128485        5.4910560473
  O         7.3068673018        1.4951234217        6.1574161409
  H         7.2827742566        1.7784464522        7.0892129354
  H         7.0281465171        2.3719816394        5.7310414577
  O        -0.0922663388        0.3266013484        8.8457733398
  H        -0.3444379302        1.2613018978        8.8943580682
  H         0.8186640818        0.2859835405        8.5568444793
  O         4.2414688772       12.4895055396       -1.3426000025
  H         5.0018828879       12.0196011701       12.6211224010
  H         3.6438745969       11.7904248370       -1.0297337813
  O         6.4933739569        7.1181237897        1.0480784131
  H         7.0714355136        6.6491456329        1.6886929429
  H         5.9366834485        7.6041158736        1.8421604702
  O        11.7908683698        8.7397242857       11.6162074207
  H        12.3324077136        9.4346945776       11.2133573434
  H        12.4072710075        8.1134290786       12.0765849249
  O        11.2549949208        4.1774494130        2.6097181647
  H        11.8681156527        4.3992166060        1.7796813145
  H        10.4493939988        3.8644252315        2.2182082843
  O         0.7112821267        3.4131565224       10.4851383784
  H         1.7074301405        3.4454704765       10.5885440508
  H         0.3618453071        4.0770170372       11.1168517576
  O         0.6328896462        7.0536699562        5.8843929291
  H         0.9852204098        7.5590195084        6.6923902689
  H        14.4835608729        6.2946194407        6.2885944614
  O        10.3080725982       10.8302595776       12.4802025954
  H        10.8252080633       10.0665000397       12.1879220030
  H         3.2275604178        4.5608586946       14.3586278226
  O         8.5178176951       10.8573968639        6.1921270458
  H         8.9391254011        9.9735596659        6.3608128170
  H         8.2982201594       10.8439628357        5.2496229682
  O        12.7351669148       13.1811815332        3.0423373619
  H        13.6415759738       13.4984926811        3.2137932555
  H        12.5906160359       12.3686351097        3.5535961588
  O         9.0857447744        3.5708474765        1.1491641555
  H        11.3296585575        7.3855537768        3.4641560674
  H         8.6601345283        4.1586671812        0.5233452605
  O        12.9625573179        4.4866947708       12.4625628745
  H        12.2362745171        4.8748711369       11.8387164190
  H        12.9279964782        3.4237872920       12.3151243978
  O         6.6943032405        3.2133474278        8.1227514490
  H         6.6338522636        3.5352387564        9.0439532243
  H         5.7520829004        3.0725095859        7.8819983792
  O         0.9530398234        0.7097791542        2.9510475671
  H         0.9448460126        1.2952131613        3.7273409801
  H         0.2492805750        1.1950630894        2.3853988237
  O         8.7357763418        7.8111903808       11.2718210190
  H         8.8523418694        6.9444189686       11.7861731342
  H         9.6408469566        8.0613036245       10.9301713454
  O        12.5244670450        5.1790591848        0.5998315769
  H        12.2261867527        2.0994257882        1.3590057453
  H        12.5660046483        4.9834902398       -0.4493201789
  O        10.9358485135        5.4606840747       10.6689534894
  H         9.9742453170        5.2370245587       10.6254564608
  H        15.2762532678        6.5727002031        8.5781712258
  O         4.8079974752        9.7511175608        8.1127160076
  H         4.0603873142       10.0762719751        7.6039588960
  H         5.0972852769       10.6424007853        8.5017797954
  O         7.0481055359        1.7288009198        1.8909663210
  H         6.3167095508        2.3615037430        2.0425297595
  H         6.6556050916        0.9459710582        1.4794453182
  O         4.6535165670        2.2966685653       12.0806869895
  H         9.3820163765        4.0275606339        5.0069231146
  H         5.1511823470        1.4349467338       11.9070009966
  O         9.1247945882       14.0305210038        4.2358852138
  H         8.4962963970       14.5439055151        4.7917007335
  H         9.8322665336       14.6741719805        3.9960664248
  O         8.5384157301        9.0011648796       13.9485206654
  H         8.6337726775        8.7806683372       12.9988176070
  H         8.0625724271        8.2835996240       14.4161399112
  O         6.7639043423       10.8795220874       12.6918937637
  H         7.0225854936       10.3876917464       13.4855982177
  H         7.5157114239       11.5018860248       12.5533114382
  O         5.4198115442       13.7225186125        1.1091555108
  H         5.0337849992       13.2726132743        0.3340885493
  H         5.7916965776       13.0844329996        1.7365074394
  O         2.2665540163       14.2144433202        7.8426701292
  H         2.6877482949       13.5326745435        8.4836843556
  H         3.0008088889       14.8605307935        7.7348591263
  O         6.0609046202       12.5560495840        8.9670747183
  H         5.4650961932       12.9878830924        9.6133557034
  H         5.8233397559       13.0174573319        8.1329050562
  O        14.5778098581       10.9013484877        8.8025302294
  H        14.5364561740       10.8159791011        9.8066406959
  H        14.4971903882        9.9905732421        8.5378093692
  O         9.8168068256        6.2337019965       -1.1183264073
  H        10.4805144647        6.0529068359       -1.8749402265
  H         9.4768549677       13.5293394973       11.9260489000
  O        10.3145750400       14.3993747839        0.9137545340
  H        10.1839719433        0.8676783852        1.4983946567
  H         9.9981926144       13.5911208131        1.3239675566
  O         0.8536344754        5.6448850763        1.0310688758
  H        -0.0921896387        5.3338558965        1.2340774756
  H         1.0403619841        6.2978075857        1.7264411991
  O         9.4810002440        8.5205502987        7.0193700782
  H         9.7859252933        8.8595627444        7.8640965788
  H        11.1809872316        8.0678451366        5.9279634868
  O        -0.6268091024        7.3001896816       12.9531404045
  H        -0.5988634573        8.0821509478       -0.7162760698
  H         8.0816972704        9.8961360350       10.0726043394
  O         3.5230328919        5.1571038847       13.0992729815
  H         5.2578459288        2.9084573841       12.4830940776
  H         3.3364880890        6.0794533591       13.4095678130
  O         8.1780919208       10.6133646290        9.4645614373
  H         7.3525125384       11.1690462932        9.4822707784
  H        11.0311751737       11.2942314761       13.0597768870
  O         0.4319380749        4.5881124350        3.9945969867
  H         1.3806626931        4.3519171770        4.2168256052
  H         0.3574010083        5.5253663591        4.2549294132
  O         2.8428015500        4.1091682177        0.9813260137
  H         1.8892461171        4.5959640402        1.0905520114
  H         2.7640679956        3.1165569940        0.8351816545
  O         5.1345215655        6.0529585632        9.9974052909
  H         6.5669627277        5.4222560030       12.4663583690
  H         4.8290103702        6.8730569753       10.4724565141
  O         7.7441599401        6.6097208052        8.8977242146
  H         5.9915017781        6.3355367347        9.6052595029
  H         8.0203603784        7.3116852193        9.5483792602
  O        10.5221464434       12.6991125658        6.2657299098
  H        10.2964877778       13.2538730383        5.5234757450
  H         9.7056807038       12.1612604529        6.3548364832
  O         1.3673726577        8.5175803868       10.8099341959
  H         0.6925074447        9.5394578727       11.1556408005
  H         0.9950586467        7.9058473042       11.4944081028
  O         3.5210054113        5.6119536463        7.7058717499
  H         4.1147424865        6.0243826062        8.4355672266
  H         4.1477975254        5.3708600864        7.0141205363
  O         3.5129438959        3.6530402523        9.9359219681
  H         3.7068088096        4.4867927421       10.2950990837
  H         3.9366374160        3.0152861776       10.5845566356
  O        10.1577833953        0.5429313498       12.7250164397
  H        10.9566063303        0.2268426981       12.1358742424
  H        10.4166816176        0.2560687650       -0.6959205288
  O        11.5482661058        2.8320361213        9.0109689079
  H        12.0930395013        3.3940743545        8.3555291031
  H        11.6797815453        3.0908856922        9.9130530278
  O        12.3790023226       12.0111709726       -0.4625178292
  H        12.4689275702       12.5667300073        0.3501162309
  H        12.9960365242       -3.0486450564       -0.2553752486
  O        11.1274616444        6.9712712251        2.6098297119
  H         4.5970690135       11.8420772356        4.1153551062
  H        11.0348540810        6.0028831404        2.8620767453
  O        11.8866909764       12.5641056523        8.8277245374
  H        11.4676514929       12.7387101944        7.9503858794
  H        12.8720106658       12.6251110952        8.7855019208
  O        10.3097759941        4.1065552299        5.2665114099
  H         8.3649953803        2.8612702932        1.3226781599
  H        10.8446124395        3.9526220393        4.4528522667
  O         1.3508350595        2.2959944305        5.6162222904
  H         1.7713232009        1.4900608022        5.9442646858
  H         2.0088395636        2.9936676212        5.5916081860
  O         7.2700533190        3.6517040005        4.4205696499
  H         6.6181164637        4.3393611250        4.2503140951
  H         7.1073602135        2.9413882776        3.8095501336
  O         1.1503350110        7.9991821015        2.9635087878
  H         2.1016037210        8.0316866042        2.8654197061
  H         1.0602796140        7.8238027354        3.9497097319
  O         7.8889428919        9.4099208890        3.4889915523
  H         8.1096027164       10.0982391870        2.8195510996
  H         6.9869598775        9.0316821454        3.3096955681
  O        10.8350150692       10.0356783172        9.3056421223
  H        11.1607040088       10.9146693140        8.8973594197
  H         9.9221052512       10.3128235392        9.5172780760
  O         3.0116707837        1.5181064404       14.7143264352
  H         3.7170988215        0.9742297829        0.7365388674
  H         3.2071651737        1.5085867307       13.7830107135
  O         8.9614760340       13.3166196226        8.8925804579
  H         9.0908853609       -0.0273985052        8.5914161858
  H         8.1145083741       13.0225340696        8.4780086282
  O        12.8000437042        4.3865761814        7.3484775456
  H        12.8644933612        3.7596263248        6.5572440993
  H        13.7278592059        4.5748958060        7.5715050555
  O         0.9892322340        4.7655818548        8.2023380536
  H         0.7990992693        4.4068222231        9.0374848993
  H         1.9137324081        4.8869483825        8.0862282111
  O         3.1923864036        7.1908284442       14.9991522918
  H         2.9129494934        8.0938379601       14.7854937062
  H         4.0637163681        7.3064369454       15.3972833308
  O         2.9334081316       11.6101523052        6.5181468832
  H         3.1636459184       12.5694836713        6.5649824685
  H         2.1708363791       11.5594125551        7.0475927465
  O         1.5831236420       14.4870392916       11.2391730453
  H         0.9008593545        0.2759428178       10.5254436094
  H         1.1429185113       14.5303300684       12.1186811358
  O        13.3911360932        1.7459959850       11.8961516400
  H        -0.1364915445        2.0348906825       11.3195627253
  H        12.8637620248       15.3768900808       11.3970267803
  O        12.1182756512       13.8184617275       11.1395133054
  H        12.3582333168       13.1090335059       11.7551391441
  H        11.8382749547       13.3849057439       10.2950086574
  O        12.8733622391        1.7826024083        0.7505237259
  H        12.8603923639        2.3601169281       -0.0256501051
  H        10.1289394657        7.0542837499       -0.7550447683
  O         0.9104487766       -0.1340359579       14.0349971561
  H         1.4553978111        0.5540369422       14.4013992958
  H        14.2908092750        0.1755598945       14.2664297488
  O         2.5954920414        9.9715445251       13.5197837994
  H         1.6256235088        9.9384970140       13.4540094173
  H         2.8378514714        9.5133338140       12.6885554110
  O         8.1714419280        4.8629571150       11.1129796027
  H         7.7425772294        5.0873212266       10.2764712946
  H         8.2638833914        3.8530298372       11.1775995519
  O         8.3849418227        6.6380232319        3.1959612704
  H         8.0019553181        7.4974974355        3.4747313239
  H         9.2145254062        6.8871975927        2.7408305952
  O        14.8798339440        7.5197397880        8.6143377284
  H         4.7446058762        4.0122871456        2.9512819953
  H         1.0549359323        7.9819296890        9.4155056867
  O         8.2512809378        2.1373946354       11.2866564647
  H         8.8428527594        1.7512505095       12.0401686551
  H         8.5687554564        1.7457827992       10.4616177730
  O         6.0964769550        5.2374609561       13.3160640376
  H         4.5590040247        5.1902331093       13.1841989142
  H         6.3447011752        5.9816328758       13.9241837917
  O        11.9492586785        7.2575866588        8.7408677415
  H        12.9062833310        7.2507814569        8.9049147649
  H        11.6904675193        8.1296458343        9.1331759671
  O         7.4946454800        5.7706181545        6.2657157401
  H        -0.1611439633        6.6077782368       13.4716949226
  H         7.8377286428        4.8868174119        6.4133018731
  O         5.2650773646        5.5767917446        5.0687235540
  H         4.0085453747        4.8955475541        5.1712569193
  H         5.1844116499        6.2195157247        4.3352653316
  O         5.5946825897       11.9956111443        4.0580091069
  H         5.9767648872       11.1553965636        4.3161172293
  H        12.1306079328        6.0523223762        0.6790514840
  O        11.3105343458        1.2799700387        3.4085975476
  H        11.8842458474        1.8673644582        3.9855275695
  H        11.8332520559       14.7699020802        3.3002824196
  O         9.2142864121       12.6653815561       11.3750820313
  H         9.0915719465       13.0023108248       10.2413288593
  H         9.8057155825       11.8295488641       11.6050475478
  O         4.0981176332        2.6904602326        7.2741016231
  H         3.6679260507        3.3052890441        7.9167501662
  H         4.0339836716        3.0581975377        6.3826466383
  O         3.9578538735        8.5281006251       10.9073500071
  H         4.0826312457        9.1259705581       10.1129390720
  H         2.9670501375        8.4046837744       10.8535908462
  O         8.8132818502       12.0084447299        2.1480458500
  H         8.7827070646       12.6315398238        2.8927925580
  H         9.6973104213       11.6074292217        2.2165341229
  O         9.1699074388        1.7045740740        8.6715714447
  H        10.1155274135        2.0938483624        8.7124784594
  H         8.6820799466        2.4686522137        8.2772888824
  O         3.0072129295        4.6246068552        5.2550072952
  H         2.5841637401        5.3948615871        5.6373884451
  H        11.2341877372        6.0735713776        9.9316045591
  O        11.8380856887        8.0997248950        5.2033662055
  H        12.6886337862        8.0601066578        5.6691882100
  O        -0.0631110347       10.4039042495       11.4252238871
  H         0.4791482942       10.9415577426       12.0017674249
  O         5.4391421183        7.8819806538        2.9960803749
  H         4.9211825096        8.6857209577        3.0976442940
 Al         8.4147193714        7.0620256993        7.2696215126
     283
 i =       63, time =       31.500, E =     -1638.0443085244
  O         5.4531626132        3.9784424589        2.3160572675
  H        10.4032036584        5.2968345201        6.4237819796
  H         5.5584297331        4.8912376671        1.9796124463
  O         6.8979339888        8.2362429827        6.8797557861
  H         6.0294804897        8.3459707281        7.2850758993
  H         7.1879583822        9.1251547720        6.6577516162
  O        11.4610004966       10.9819495562        4.3645887069
  H        11.4625225365        9.9810597249        4.4455555771
  H        11.2591064873       11.4182558463        5.2378668048
  O         5.1441725351       14.0832354834        6.4702054511
  H         5.8194640476       14.8071214446        6.2963006974
  H         5.2916743218       13.4136876960        5.7792280081
  O         4.5323746936       14.2762927690       10.7595539031
  H         3.6388460652       14.6875661936       10.7034420313
  H         4.3666900123       13.6132385725       11.4537927868
  O        10.1212166313        5.9741412161        7.0882617482
  H         6.3540327931        5.6718553979        5.7089835036
  H        10.9235344236        6.1539444405        7.6427908732
  O        11.0268782963        9.7009500260        1.3535848063
  H        10.4922018731        9.3062003477        0.5919420976
  H        10.6393526780        9.3185996534        2.1279658640
  O        -0.4604565952        9.5081884534        0.6729234323
  H         0.0033040264        9.1850396753        1.5031964248
  H        -1.4625490398        9.6283040157        0.9844570289
  O         2.5457296104       12.2012527292        9.7045523407
  H         2.3773246529       12.8205762682       10.4256675204
  H         1.6746715900       11.8638902943        9.3420802163
  O        12.9733132248        2.7070015598        4.9576549062
  H        13.4449266393        3.3805975194        4.4623447844
  H        13.6703811321        2.2619055904        5.4917710256
  O         7.3090118526        1.4966094747        6.1581238593
  H         7.2930362111        1.7809405135        7.0864319367
  H         7.0165239515        2.3711945628        5.7175748835
  O        -0.0926945876        0.3257946953        8.8459194149
  H        -0.3504017891        1.2687295874        8.8993343193
  H         0.8289648626        0.2747434322        8.5558926022
  O         4.2407258144       12.4899755623       -1.3425863686
  H         5.0016053254       12.0174418336       12.6310815941
  H         3.6426995740       11.7950160073       -1.0339624159
  O         6.4932156810        7.1193161637        1.0508537750
  H         7.0688900754        6.6496570180        1.6977270898
  H         5.9391569887        7.6038421943        1.8473238537
  O        11.7892311404        8.7396044541       11.6181631313
  H        12.3406842645        9.4275493416       11.1953932005
  H        12.4190185416        8.1154237049       12.0670961085
  O        11.2556929697        4.1772937774        2.6073523119
  H        11.8680175972        4.4043822422        1.7751888701
  H        10.4460899305        3.8507896982        2.2155014267
  O         0.7126397486        3.4138366029       10.4858391661
  H         1.7122709509        3.4487619457       10.5845920796
  H         0.3555827084        4.0673838756       11.1243185225
  O         0.6351659119        7.0542134366        5.8867227551
  H         0.9739505297        7.5570628380        6.6977275871
  H        14.4958035812        6.2846146099        6.2771912317
  O        10.3080281723       10.8276423233       12.4785876043
  H        10.8268912451       10.0610560556       12.1867195899
  H         3.2366651637        4.5701349736       14.3622998424
  O         8.5188249190       10.8573707742        6.1933087424
  H         8.9368364816        9.9690682873        6.3503814083
  H         8.3049673357       10.8543733715        5.2596063926
  O        12.7370352574       13.1808853312        3.0422989701
  H        13.6343498400       13.5107626678        3.2126214600
  H        12.5968063898       12.3633018380        3.5537671671
  O         9.0877452867        3.5666345521        1.1510960997
  H        11.3308077045        7.3809394608        3.4758227860
  H         8.6613174343        4.1627935770        0.5117232048
  O        12.9631794024        4.4850337322       12.4600479938
  H        12.2439525221        4.8589730004       11.8484152807
  H        12.9210621567        3.4239491539       12.3053521032
  O         6.6965670857        3.2141180951        8.1197118376
  H         6.6290953246        3.5308612586        9.0214116642
  H         5.7456804659        3.0747755775        7.8794674158
  O         0.9511140057        0.7073132545        2.9509282135
  H         0.9482221647        1.2731250020        3.7334283268
  H         0.2533425222        1.1935642651        2.3894924129
  O         8.7333969882        7.8093096694       11.2708339404
  H         8.8537569920        6.9413923379       11.7871436680
  H         9.6540256523        8.0552487357       10.9398188902
  O        12.5252503089        5.1800452150        0.6012093679
  H        12.2218323423        2.1119088050        1.3573140906
  H        12.5644676484        4.9799139921       -0.4524319962
  O        10.9334885936        5.4592979225       10.6693061570
  H         9.9740646659        5.2409210404       10.6177672431
  H        15.2526231355        6.5941922747        8.5748393623
  O         4.8076561042        9.7536475111        8.1137693245
  H         4.0631153716       10.0738612628        7.5973699495
  H         5.1052842871       10.6309910178        8.4921309805
  O         7.0513610091        1.7316719935        1.8916530486
  H         6.3117673077        2.3586573551        2.0475344813
  H         6.6602711408        0.9419544825        1.4807750562
  O         4.6520812322        2.2970764002       12.0770087159
  H         9.3831778811        4.0212004047        5.0086628155
  H         5.1559869616        1.4440607712       11.9158933718
  O         9.1204699253       14.0321927004        4.2369186355
  H         8.4982689672       14.5361828659        4.7872291384
  H         9.8378879567       14.6755098293        4.0145341032
  O         8.5387639897        9.0007779398       13.9469604327
  H         8.6297924136        8.7725379281       12.9986477482
  H         8.0707514243        8.2778943764       14.4214600786
  O         6.7636672607       10.8789851983       12.6909924207
  H         7.0225686839       10.3900700493       13.4914853570
  H         7.5107827923       11.5017631287       12.5558753961
  O         5.4205843298       13.7212653365        1.1086203205
  H         5.0339522445       13.2752251703        0.3338767662
  H         5.7832031586       13.0664600329        1.7353565790
  O         2.2661724728       14.2138886503        7.8450194068
  H         2.6800007919       13.5227077721        8.4907685737
  H         3.0104437083       14.8675695199        7.7455839691
  O         6.0608761196       12.5550996949        8.9686388385
  H         5.4611761801       12.9989188942        9.6018198382
  H         5.8052943501       13.0228548167        8.1283498626
  O        14.5781130483       10.9006932398        8.8046260455
  H        14.5419764183       10.8145457192        9.7999013423
  H        14.4963616902        9.9947611391        8.5325561189
  O         9.8125699515        6.2373419401       -1.1205899984
  H        10.4855167548        6.0511290698       -1.8718135592
  H         9.4672397996       13.5302328240       11.9272039530
  O        10.3158549071       14.3984365072        0.9118911685
  H        10.1878915682        0.8686442836        1.5073917358
  H         9.9831314716       13.5919006204        1.3279838720
  O         0.8526929051        5.6432290895        1.0328855071
  H        -0.0930456586        5.3485191252        1.2278603884
  H         1.0411654918        6.3014673372        1.7305273336
  O         9.4819370411        8.5154264115        7.0211542253
  H         9.7971610958        8.8626560536        7.8764801011
  H        11.1612570640        8.0542895427        5.9334578721
  O        -0.6278411221        7.2982266783       12.9521699028
  H        -0.6023215785        8.0801169383       -0.7230200939
  H         8.0844656553        9.8824775822       10.0743971951
  O         3.5219120206        5.1571631661       13.0975436469
  H         5.2585987333        2.9131497580       12.4922433164
  H         3.3370784266        6.0734410318       13.4062692570
  O         8.1811203040       10.6136853903        9.4640564204
  H         7.3509763417       11.1657891680        9.4853328024
  H        11.0298011823       11.2872842661       13.0647017529
  O         0.4309115761        4.5900982266        3.9951140768
  H         1.3764923225        4.3551819958        4.2098388664
  H         0.3533738203        5.5198247747        4.2448091887
  O         2.8442632247        4.1086579022        0.9850569172
  H         1.8829868663        4.5927189582        1.0981198193
  H         2.7604870374        3.1213650357        0.8403242656
  O         5.1351630116        6.0543682006        9.9980055693
  H         6.5496101043        5.4132994077       12.4669920579
  H         4.8263927862        6.8740609061       10.4648970147
  O         7.7426110618        6.6103611340        8.8981402608
  H         5.9857698604        6.3278587206        9.5987676978
  H         8.0277180178        7.3177866404        9.5479373963
  O        10.5199929101       12.6986902833        6.2661208000
  H        10.2922758852       13.2553208300        5.5166656335
  H         9.6949655003       12.1539712722        6.3469426489
  O         1.3697307865        8.5185538917       10.8073755593
  H         0.6749494828        9.5417584553       11.1563845472
  H         1.0012375882        7.9100200737       11.4835971364
  O         3.5177107015        5.6112254662        7.7078903841
  H         4.1204717409        6.0328157489        8.4195197103
  H         4.1511944278        5.3742214466        7.0026942055
  O         3.5119664809        3.6520113716        9.9345769900
  H         3.7079266392        4.4940351027       10.2967493932
  H         3.9446489767        3.0024249034       10.6093337035
  O        10.1551077444        0.5423716497       12.7273532212
  H        10.9479609913        0.2360982086       12.1352465719
  H        10.4303044831        0.2595766278       -0.6835747231
  O        11.5472664920        2.8342331976        9.0103479760
  H        12.0905622153        3.3869842624        8.3564376109
  H        11.6870961237        3.0807134545        9.9164881585
  O        12.3777161284       12.0100829225       -0.4653251759
  H        12.4615313571       12.5699859048        0.3481406801
  H        12.9935768282       -3.0545251609       -0.2647473087
  O        11.1274862558        6.9720043033        2.6057387457
  H         4.6098203781       11.8532129660        4.1118269607
  H        11.0262930335        6.0015467575        2.8628434189
  O        11.8836573438       12.5650642496        8.8295577813
  H        11.4636531659       12.7392395318        7.9476561328
  H        12.8775722776       12.6315605339        8.7746602793
  O        10.3105565007        4.1098772356        5.2679155430
  H         8.3603570595        2.8548152936        1.3330982070